192
Lattice="12.420000076293945 0.0 0.0 0.0 12.420000076293945 0.0 0.0 0.0 12.420000076293945" Properties=species:S:1:pos:R:3:forces:R:3 pbc="T T T"
O        9.18293953       0.62983400      11.36810017       2.12127686       1.23779225       1.01282489
O        3.26203990      12.10960007       3.55797005      -0.07896166       1.16453075       0.18591493
O        6.97211981       3.33534002       6.45380020       0.61955768      -1.46776819       0.43200344
O        7.89476013       0.90444303       7.37799978      -0.62105358      -0.33516231      -1.24419177
O        5.95478010       9.49170017       6.27866983      -0.85334402      -1.88750136       1.48979485
O        0.20374300       6.74992990       3.90511990       1.96546280       0.01959232       0.41039485
O        7.50570011       7.03895998       9.30696011      -0.42779043      -3.73463535       0.60990781
O        0.32930499      11.55449963       4.32971001      -0.28095627       1.10383523      -0.14227714
O        7.46638012       6.29101992       0.99178803      -0.46439573      -0.34210584       1.26560140
O       10.47910023       4.17024994       6.27917004      -0.41869387      -0.71210146       0.30957162
O        4.55536985       0.14856499      11.23200035      -1.18046904      -0.50958079      -2.30544710
O        9.36450958       8.91040993       4.31075001       1.10765803      -0.34286329      -0.20070751
O        4.60454988       7.08837986       1.69330001      -0.91679782      -1.57292581      -0.73333567
O        4.69129992       7.90621996       8.27787971       0.53128916      -0.40341276      -0.96313012
O        0.96173298       6.39518023       1.17030001      -0.26184064       0.71432185       0.03915739
O       11.53149986       9.48161983       6.02336979       0.84408033      -0.49401227       1.47037685
O        8.48845959       9.60914040       1.18540001       1.26908314       0.30558488      -0.89756596
O        1.28185999       9.63558006       2.54104996      -0.45945972      -0.63047767      -1.22289789
O       10.76500034       4.87265015       1.74504006      -1.46863782       3.24718857       3.27685666
O        1.98852003       4.64834976      10.51700020      -1.07391179       0.17730276      -2.91839385
O        9.64212990      11.70199966       2.78829002       0.41676450       0.88648194       1.06551242
O        9.28785038       3.97714996       9.00673008       1.34636128       0.89926648       1.22668564
O        2.26838994       6.87097979       8.45598030       2.58466578      -0.37587678       0.16721323
O        7.43970013       9.59554958       8.64529991       2.03440452       1.10392833       1.35050380
O        6.22223997       4.70026016       8.63302994      -1.11291182       0.30543420       2.95565748
O        0.45282701       1.09627998       8.10021973      -0.87575835      -0.82201821       0.12374051
O        1.38599002       3.39285994       5.61680984       1.63418031      -0.55845028      -1.78391314
O        6.69879007       8.26766968      11.86380005       1.27146196       0.23120286      -1.55582392
O        8.62440014      11.88449955       5.37346983       0.57448572       0.51469785       0.23784916
O       10.06529999       9.92171955       9.01224995       2.06174302       0.04585151       0.21692912
O       10.79409981       4.98531008      11.33230019      -0.64271563      -0.82044929       0.20779295
O        6.69081020       4.53449011       3.02478004       1.49693537      -0.62496990       0.36973080
O        4.01155996       9.38644028      11.57479954       0.22001855      -0.20476779       1.38936090
O        9.77513981       7.37959003       1.07810998      -2.15682960      -0.90932000       1.09467852
O       12.31929970       5.93883991       6.54714012       1.74499583       1.08307767      -1.03987551
O        9.12983990       4.38431978       4.05143976       2.30041289      -0.87010247       0.62437546
O        6.05275011      11.32139969       3.76042008       1.19314766      -1.32292306      -3.99959731
O       12.00930023       3.98538995       8.76795006       1.92778075       2.63365245       1.61941242
O        2.71732998      10.23890018       6.83740997      -0.68676686       1.35658038      -2.38488030
O        4.42573023       5.61923981       6.84599018      -0.91473937      -0.27639821       0.99076176
O        0.07134000       3.10597992       2.82369995      -0.26069495       0.03255274      -0.59390372
O        2.99819994       3.27666998       8.12508965       0.09954026       0.11324064       1.13989139
O       12.41020012       7.93759012       9.82036972       1.76562798       0.54543382       1.18512535
O       11.59230042      11.42809963      10.92809963       0.79438812      -0.62010431      -0.40426996
O        1.49275005       9.96938038       9.62329006       0.75802344       0.56467855      -0.38895750
O        2.31488991      11.63160038       1.17132998       0.15264383       0.24261752      -0.69029546
O        1.38381004       0.86353099      10.87030029       0.45767897      -0.17556161      -0.27958897
O        8.11518955       1.83118999       1.34677994      -4.04943609       0.03354724      -2.47378063
O        4.76812983       6.18154001      11.03919983       0.06266910      -0.68616164      -0.92887223
O        7.45817995       7.18654013       5.26375008      -1.28300881      -1.04195499      -0.13858297
O        7.65758991       4.56155014      11.31459999      -0.09984725      -0.19420314       0.61243623
O        3.06418991       3.66033006       0.38479000       0.03690922       0.70232409       1.74780869
O        6.52288008       1.69885004       3.78443003       1.91686225       0.26292768      -0.26178303
O        7.09876013      11.28730011      11.82750034      -0.30495238       0.22065671      -0.30640814
O       11.23610020       1.40594995       4.89966011      -0.23852329      -2.47996020      -0.60984766
O        9.89428997       1.42074001       8.96008968       1.25151742      -1.40041351      -2.45009875
O        9.63160038       7.60086012      10.61330032       0.36635134      -0.27352011      -0.33576858
O       11.00230026       1.05212998       1.23970997       0.43449277       0.96060479      -1.63490021
O        3.81529999       2.01317000       4.44529009       1.39953268       1.95970201      -1.83865345
O        2.96474004       8.89791012       4.19508982      -3.14406466      -0.10820642       1.99921417
O        4.86490011       2.87172008      10.36530018       0.54432207       0.66115612       0.06040190
O        5.02153015      10.89690018       9.07203007       0.56871259       2.91211534      -0.04330509
O        2.89888000       6.04348993       4.11234999       0.40121549      -2.37685323       0.25379255
O        4.89713001      12.15600014       6.27502012      -0.95213246      -1.38445628      -3.63545346
H        3.96331000       9.46741962       0.16397101       0.23388812      -0.34855777      -2.12343550
H        6.68303013       4.30974007       7.89745998       0.63524038      -1.32857382      -1.22483647
H        5.94238997       4.00733995       9.33662033       0.66206574       0.57259905      -1.52958322
H       12.17720032      10.90569973      11.49769974      -0.25013337       0.08693363      -0.10624158
H       10.92710018      11.81859970      11.48639965      -0.82701796       0.51651508       0.63446802
H        2.26675010       9.80708027      10.19649982       0.14031281       0.21425878      -0.23975588
H        1.82080996      10.25070000       8.73209953       0.03321403      -0.41308630       0.77104604
H        4.63106012      10.07069969       9.09971046      -1.53384244      -2.82303214       0.23234083
H        5.91462994      10.66650009       8.80231953       1.09121120      -0.09878282      -0.09365192
H        3.77451992       8.84138012       3.78316998       2.79861188       0.14224577      -1.83699977
H        2.22065997       9.21877956       3.55322003       1.29479373      -0.23842199       0.16419835
H       10.48289967       0.51138699       1.81624997      -0.44731128      -0.79637706       1.31457984
H       11.45160007       1.74328995       1.73499000       0.35239127       0.09851696       0.44539991
H        8.92733955       7.33790016       9.97031975      -0.21779352       0.29169062       0.31730497
H       10.25669956       8.05792999      10.01739979       0.11766911      -0.17163502       0.52000254
H       11.28369999       2.15723991       5.44052982       0.12050555       1.99627852       2.01421762
H        0.89476401       0.88706899       8.95438957      -0.70632935      -0.06767298      -0.25008503
H       11.11900043       1.79797995       4.05348015      -0.22030498       0.61557966      -1.46856785
H       11.96749973       0.64950103       8.13593006       1.63930142       1.00936723       0.20164083
H        6.90024996       7.77850008      10.99499989      -0.26471564       0.76290184       1.28607512
H       12.29119968       4.04446983       2.64422011      -0.02345514      -0.32706130       0.21342058
H        4.88185978       5.02543020       7.47524023       0.85324270      -0.14359817      -0.49358392
H        3.57799006       5.58334017       7.34037018      -0.21977739       0.45075706      -0.89846736
H       12.22509956       3.07158995       8.65939045       0.50814873      -1.27457917      -0.23592751
H        0.39933801       4.42429018       9.26546001      -2.37951279      -1.53492498      -1.22299874
H        9.83749962       4.36973000       3.35333991      -0.84093791       0.16875641       0.36287522
H        9.72422028       4.18465996       4.93420982      -1.44905937       0.83738565      -0.86654252
H        0.28399399       6.34694004       5.72182989      -1.32562268      -0.32638097       0.32336456
H        0.75910097       5.70488977       6.92521000      -0.32071942      -0.52241784       0.69204068
H        4.87674999       8.92245960      11.40569973      -0.70415628       0.43197206       0.62504238
H        1.14285004       6.50244999       3.64123988      -1.34059012       0.09043393       0.73486656
H        9.90725040       4.64281988      11.50629997      -0.14528687      -0.76927358       0.68855786
H       10.44909954       5.69038010      10.79329967       0.61363184       1.80995321      -0.64998823
H       10.84200001       9.71881008       8.42096996      -1.37632596       0.49883825       0.79092997
H       10.50979996      10.22420025       9.85853004      -0.43420431      -0.00902560      -0.98778439
H        7.44730997       8.93768024      11.96080017      -1.19634771      -0.91380501       0.14656523
H        7.38599014       1.76182997       3.19306993      -2.25382853      -0.16347434       1.58096099
H        6.74730015       1.66685998       4.75400019       0.37705845       0.28729045      -1.29623866
H        4.00481987       3.88453007       0.33764800      -0.05318481      -0.22759765      -0.39841816
H        4.80557013       7.04456997       7.77653980      -0.24397969      -0.30387509       0.79113048
H       12.43780041       9.71630955       5.78234005      -0.22032091       0.43114418      -0.72072291
H       11.75870037       8.99977016       6.84956980      -0.68687224      -0.24013847      -0.76587093
H       10.92860031       4.37422991       1.00302005       0.39083186      -1.33465970      -3.15265846
H       10.24629974       5.73931980       1.52011001       1.15208042      -1.44069600      -0.32003343
H        1.29267001      11.62279987       4.24163008       0.23334818       0.27122876      -0.29697064
H        0.00114300       0.08731000       4.30258989       0.41797909      -1.36929810       0.51923788
H        7.96305990       9.69688988       1.95846999      -0.84261066      -0.11521679       1.20190024
H        9.13381958       8.87765980       1.37158000      -0.34519836       0.21806502       0.08814770
H        3.81963992       6.64152002       2.12941003       1.34049404       0.50045186      -0.56483382
H        4.77090979       6.52567005       0.87491101      -0.54649878       1.14285386       1.17968023
H        7.03531981       5.93667984       1.82123005       0.35368505       0.15611276      -0.65226930
H        6.91967010       7.04794979       0.69729400      -0.24872904       0.27643111      -0.46946183
H        7.49029016       3.73411012       5.75108004       0.30651200       0.24376063      -0.16558008
H        7.50130987       2.50615001       6.76318979      -0.65271103       0.98880976      -0.13177933
H        4.74937010       8.39332008       7.43650007       0.05396694       1.11602378       0.39021787
H       10.13560009       4.25936985       7.21530008       0.44213000      -0.13217938      -1.09606183
H       11.32369995       4.69245005       6.23280001      -0.21837665       0.22304937       0.51535964
H       10.31180000      11.29940033       3.39061999      -0.61274993      -0.12145428      -1.13756716
H        2.83716989       4.01886988       1.28830004      -0.08856319      -0.54557264      -1.29555678
H        8.29916954       7.70861006       5.11722994      -0.82343489      -1.33276367      -0.96083874
H        7.18267012       6.36453009       4.69448996       1.66135228       2.60521150       1.20537484
H        8.96988010       2.08559990       1.58673000       2.40703654       1.20739675      -0.11248062
H        7.75323009       2.29210997       0.47536901       1.65977049      -1.10420752       2.87322378
H        0.62290698       0.45764300      11.28050041      -0.66380537      -1.26329303      -0.12965661
H        1.21653998       1.72599995      11.22019958       0.50061488       1.54920685       0.20097388
H        0.38947201       3.06462002       3.72714996       0.38652730       0.22088553       0.65301752
H        8.44293976       9.86312962       8.75984001      -2.01151800      -0.74343705      -0.21581171
H        8.53285980       4.52340984       9.30910969       0.71376139      -0.70156610      -0.07398503
H       10.10280037       4.14565992       9.63214970      -1.64433765      -0.07370273      -1.67512774
H        8.36915970       0.18275300      11.29240036      -2.01750088      -1.36342359       0.08405348
H        9.21498013       0.93791199      12.30179977       0.11061863      -0.37697771      -0.81704104
H        8.03761005       0.33099699       6.56234980      -0.16352215       0.49125707       1.39894187
H        8.70195961       0.83045697       7.93851995       0.03351793       0.46500817      -0.03629318
H        9.46769047      11.17350006       2.00217009       0.07606197      -1.09322333      -0.12393283
H        7.30100012       9.59012985       7.70743990      -0.35882831      -0.05859493      -1.22307789
H        2.99310994       7.49577999       8.74796963      -0.61103195      -0.62333721      -1.00365889
H       12.16069984       6.61792994       3.09734011      -0.84101301      -0.25521901      -0.89403838
H        7.39582014       4.60956001      12.26900005       0.33107120       0.60457951      -1.05415690
H        2.97483993       6.99396992       4.09568977       0.57859027       1.15299118       0.96651882
H        3.46036005       5.59546995       4.82101011      -0.81004196       1.51621091      -1.06715024
H        0.66048002       8.75601006       9.75693989      -1.48903024      -1.24994648      -0.04063372
H        2.38397002       5.50451994      10.46920013       0.18726218       1.16071892      -0.58960229
H        4.08584976       2.97517991       9.81177998      -0.21725821       0.10024679      -0.40070179
H        5.09985018       1.94253004      10.27000046       0.18509938      -0.40178013       0.30649504
H        3.52234006       1.37528002       5.07680988       0.97405320      -0.55825025       1.55177343
H        1.03424001       7.31942987       1.49059999      -0.00230525      -0.51748389      -0.27811828
H        4.83136988       2.10878992       4.27537012      -2.24449182      -0.83290064       0.86412567
H       -0.00017800       6.26038980       1.07878995       0.37639922      -0.10715998      -0.14334466
H        9.63757038       2.29554009       9.19909000      -0.70968312       1.33130276       0.48096907
H        9.86575985       0.85095900       9.70151997      -0.15618114      -0.41194522       1.68528104
H        6.77111006      10.88920021      10.99180031      -0.22170623       0.44739202       0.81886399
H        3.70091009       0.55364799      10.91810036       0.83524805      -0.35810480       0.90566391
H        6.34308004      11.71119976      12.28750038       0.22367209      -0.47345477      -0.90092379
H        4.68050003      11.89579964      10.46000004       0.12758842       0.81981474       1.43319511
H        7.86497021       5.48198986      11.07240009      -0.30570006      -0.19262910       0.56804615
H        1.47572005       7.27405977       8.73719025      -2.17125845       0.62391007       0.63571042
H        7.07161999       6.09403992       9.12940979       0.49301264       2.21267080      -0.05282126
H        5.31021976       5.42395020      10.63930035      -1.47637010       1.75463438       0.35259801
H        4.14491987       6.59962988      10.37160015       1.59523010      -1.04297566       0.79974985
H        6.95870018       7.70372009       8.91263962      -0.63265747       0.98320371      -0.70064616
H        2.70613003      11.82349968       0.29091501      -0.05628402       0.15377408       0.94241166
H        2.74389005      12.16749954       1.90162003      -0.11625808      -0.80592924      -0.65177518
H        4.07355022      11.55220032       3.61707997      -0.27715617       0.82429308      -0.02777923
H        0.32467800       7.49103022      10.64869976      -0.77617437       0.38118199      -1.17003036
H        3.49416995       0.70799398       3.71557999       0.12129179      -2.23768878      -0.65766299
H        0.67636400      10.26220036       2.90360999      -1.45652783       0.53701961       1.42267621
H        2.66816998       3.81264997       8.89008999      -0.17684922      -0.23601647      -0.52902609
H        2.26815009       4.39445019      11.35569954       0.81287789      -1.44994640       3.14059067
H        6.40700006       3.61643004       3.24195004      -0.06019467       0.75707471      -0.22299023
H        9.80545998       7.60396004       0.15363801       0.67776233       0.07539658      -1.52792025
H        6.05346012      10.38560009       5.99431992       0.59420562       0.53498381      -1.21549833
H        2.65567994       2.39301991       8.32223988      -0.19633561       0.15870288      -0.23698783
H        6.09382010      11.88619995       4.49967003       0.32975170       1.62573218       1.10555124
H        7.68686008       4.45900011       3.27247000      -1.39785433       0.19499195       0.00991263
H        6.64036989      11.67889977       2.97913003      -1.80461109      -0.54131645       2.75636148
H        8.71578979       7.05820990       1.06711996       2.06856871      -0.12922107       0.57641304
H        8.45627022      11.37489986       4.58393002      -0.15564996      -0.29929185      -0.59603882
H        9.29780960       0.12374200       5.11816978      -0.03729488      -0.33381557       0.06039264
H        9.98186016       9.31348038       4.96165991      -0.16193168      -0.26457372      -0.09719747
H        4.39308977      11.46790028       6.69858980      -0.69890660      -0.58457476       0.53453130
H        9.97436047       8.28862000       3.84133005      -0.69015503       0.59124780       0.42811748
H        1.56399000       2.54045010       6.04911995      -0.41198072       0.37879497       0.32330027
H        3.33043003       9.82448006       6.17441988      -0.73920089      -0.22441052       0.54157460
H        2.18566990       3.41423988       4.99249983      -1.39235258       0.21543787       1.19101727
H        2.16342998      10.79950047       6.17650986       1.17465067      -1.19857168       1.74886334
H        1.57342994      10.25269985       1.84401000       1.25467265       0.04734172      -0.63531446
H        5.23414993       0.22226100       6.95257998       1.77922750       2.27338791       3.23203087
H        6.37404013       8.71382046       5.84266996       0.33089429       0.84958553      -0.74030185
192
Lattice="12.420000076293945 0.0 0.0 0.0 12.420000076293945 0.0 0.0 0.0 12.420000076293945" Properties=species:S:1:pos:R:3:forces:R:3 pbc="T T T"
O        8.78925991      10.86040020       7.26320982      -0.35612401       0.25468215      -0.99955285
O       11.14470005       0.49317899       3.26004004       0.46106103      -1.34609330      -0.28679010
O        2.70320010       1.37785006       9.98511028       0.45579898       0.37996995       1.75597918
O        8.36289024       1.02129996       1.86197996      -1.06282616       0.50584191       0.08383339
O        4.49221992       6.65336990       0.72263002      -0.51177806       0.30869797       0.26096439
O       10.68519974      12.11999989      11.37539959      -0.87377036       0.72343183      -1.51436532
O        2.86756992       1.31485999       0.86764401      -0.83188301      -0.74239421       0.06645582
O        1.94546998      12.10599995       4.69113016       0.17431462      -0.32713380       0.59824377
O        8.54154968       8.01006985       9.25096035      -0.98368609      -0.29553083       0.55296153
O       10.43939972       9.95775032       9.01177025       0.20534989       0.31749114       0.26503703
O        2.70072007       4.69742012      10.80669975       0.56199479       0.73561060      -0.10380829
O        0.39718199       8.64756012       5.62455988       0.97723311       0.29877195      -0.58068573
O        2.86494994       4.29521990       1.89016998       0.46050361       1.18485534      -0.53527182
O        5.04906988      10.87259960       7.29860020      -0.22398834       0.85670084      -0.64643705
O        8.06490040       3.07203007       6.62068987      -0.19543521      -0.08657058      -2.11862612
O        3.64944005       7.35589981      10.80490017      -0.13145742       3.51026964      -0.52323335
O       11.23359966       6.82412004       2.66680002       0.58351904       0.46356320      -0.60277766
O        1.04553998       1.96059000       3.20111990       0.34658933       0.36139375      -1.14718306
O        6.66966009       4.84853983       0.93456298       0.25437981      -2.12108755       0.01495045
O        6.42726994       3.56629992       9.78174973       0.85405517      -0.71480167       1.01059425
O        6.89822006       8.29384041       2.68125010      -1.53350258       0.13910851       0.69667637
O       10.86709976      10.18490028       1.87776995      -1.18604779      -0.65425628      -0.61959988
O        5.76119995       8.18706989       8.96016979      -1.47865021      -0.62364525      -0.97365570
O        7.17288017       6.34462023       4.93610001      -0.74627090      -0.10383812      -0.11116371
O       11.82919979       1.35359001       9.50362968       0.59877855       0.00746905      -0.08778569
O        8.74263954       0.67900503       5.09590006       0.07147770      -0.19780576       0.88492435
O        4.89594984       3.93934989       7.69173002       0.46704862      -0.71918178       1.07919538
O        1.40199006       9.21576977      10.38549995      -0.14712419      -0.62502337       1.44025946
O        6.33912992       2.49780011       2.90468001       0.63484341       0.22323088      -0.28469053
O        2.35464001      10.96580029       6.98388004       0.33799052      -1.52930450       1.44990575
O        9.28238010       2.66008997       9.14692020      -0.15753765       1.95095563       0.00814063
O       10.82190037       2.39632010       5.49608994      -1.07490826      -1.60497463       0.14008039
O        0.15722001       3.95571995      10.36229992      -1.10880423      -2.27618575       0.14427076
O        8.43023968       5.70323992      10.87559986       0.86344945      -0.05634830       1.66515958
O        5.24357986       6.59433985       6.67067003      -0.61760986       1.51195264      -1.15722418
O        9.92720985       8.63465023       4.45110989       0.98178810      -0.07043280      -0.66159064
O        3.97045994       1.41475999       3.80157995      -1.37552989       0.63970023      -0.72476208
O        0.79712403       1.99498999       6.57023001      -0.86589199      -1.10345006      -0.74432874
O        4.52542019       9.87314034       2.54595995      -1.17093229      -1.02866960       0.58708364
O        0.06848700       5.02350998       4.42223978      -0.63946062      -0.54582667      -0.01911410
O        0.45380500       4.51795006       0.59570402       2.53992605       1.14139235      -0.16020852
O        2.80383992       9.34270000       0.62747502      -0.33874953      -1.19279385       1.24557602
O       11.41759968      11.21350002       5.37231016      -1.91581178       1.74680901      -0.69217801
O        6.96487999      11.78839970       9.27278042       0.52009404       1.39130569      -1.11839283
O        5.38794994       0.92768300      11.96990013      -0.04607314      -0.12787125      -0.73811948
O        0.93764901       7.37982988       0.54695702      -1.01059937       0.32029107      -0.15893480
O        5.44414997       1.45024002       6.56360006       0.53822958      -0.67268336      -0.59396595
O       10.35319996       2.69954991       0.54504502      -0.52943128      -1.11533940       2.12329674
O        3.07455993       4.73948002       4.78444004       0.82961220       0.59872454      -0.50389510
O        6.59670019       9.98993969      11.32409954       0.86632806       0.06273183      -0.11427011
O        1.19428003      10.22910023       2.66525006      -0.63936341      -0.26707694      -0.53778172
O        3.02300000       7.55856991       4.54405022      -0.11642624       0.31700775       0.30717844
O        4.72083998       3.56669998      11.96230030      -1.56525064      -0.55879635      -1.41239130
O        7.16335011      10.05539989       5.03329992      -0.43392044       1.75141084      -0.20265023
O        2.41393995      11.50969982      11.48680019      -0.75895160       0.01822964      -2.10192323
O       10.68379974       5.01485014       6.37859011       1.50057089      -1.15449417       0.17320134
O        9.59183979       5.38386011       0.83809501      -0.40299213      -0.72141296      -0.39799544
O        0.10099200       5.85657978       8.46518040       0.99156755      -0.52479094      -0.01415289
O        6.25380993      11.40229988       1.28640997       1.06142342       1.43709338      -0.98004949
O        0.03649500       8.53186035       8.23758030      -0.21279530       0.16970155       0.82757586
O        9.08168030       7.38423014       6.67129993       0.30949911      -0.04977502      -1.02647030
O        2.39089990       3.33175993       8.17323971       0.55208015       0.83600450      -0.06459691
O        8.37884998       8.53024006       0.37373999       0.07880277      -1.09932244      -0.41035476
O        9.06579971       4.31721020       3.96598005       0.50247633       0.19898538      -1.55765712
H       -0.01225400       2.96111989      10.14319992       0.40182126       1.58486915      -0.35410777
H       11.63220024       0.65290201      10.16320038      -0.03895273       0.29144740       0.04937546
H        0.27613100       1.12681997       9.11900043      -0.35730106       0.04438547       0.04556920
H        6.93284988      11.16349983       9.98565006      -0.19457801      -1.15745413       1.12359262
H        7.43052006       0.12343500       9.66285038      -0.18188241      -0.03228328      -0.18162993
H        5.02463007       1.75918996      12.31560040      -0.00224766       0.24460088       0.04908288
H        4.97341013       0.88803798      11.08119965       0.29641786      -0.30120525       0.66680276
H        1.80072999       2.95913005       7.47229004       0.38247266       0.00719497       0.14628291
H        3.28715992       3.61743999       7.79096985      -0.81440467      -0.55054313       0.30774409
H       -0.16480701       7.60396004       8.45065022       0.42979228      -0.63190776      -0.50033718
H       11.66730022       9.00940037       8.62987041      -0.02999295       0.46855322      -0.47049233
H        0.99254501       5.44341993       8.25627995      -1.38584101       0.47750476       0.42786139
H       12.26220036       5.45030022       9.32600021       0.36933845      -0.38495380      -0.62853652
H       10.12590027       5.73617983       1.57044995       0.23313633       0.42885590       0.22521681
H        9.75677967       4.41168022       0.78450602       0.02402285       0.31022158       0.14004181
H        2.49985003      12.20849991      10.76799965       0.27334478      -0.45969269       1.04385507
H        9.00699043      12.52309990       5.84780979      -0.29669809       0.06399167      -0.54358059
H        1.97036004      10.79780006      10.93500042       0.30710232       0.58558160       0.76571101
H        8.27750015       1.40531003       5.55654001      -0.37104413      -0.01506049      -0.12950338
H        0.96403098       8.80624008       9.62325001      -0.21152414       0.17051505      -1.20126152
H        1.18050003       4.45761013       1.28649998      -0.02383927       0.03349993      -0.80346817
H       12.47449970       4.09451008       4.07480001      -0.14362079       0.94715941       0.45239332
H       11.70890045       5.12831020       5.06219006       0.87021506      -0.65709990      -0.55656052
H       12.28190041       2.08213997       6.22157001       0.35923815       0.53157401       0.34308851
H        0.96907198       1.07539999       6.28494978       0.34145176       0.56418335       0.70581824
H       10.44929981       9.36973000       4.08717012      -0.48955038       0.49384412       0.39778617