193
Lattice="12.42 0.0 0.0 0.0 12.42 0.0 0.0 0.0 12.42" Properties=species:S:1:pos:R:3:forces:R:3 i=1 time=0.0 energy=-29990.19346279029 pbc="T T T"
O        9.11078000       5.45622000       9.43961000       0.09701057      -0.87347767      -0.17329545
H        9.80789000       6.11685000       9.04196000       0.48786852      -0.08154731      -0.10967261
H        8.76945000       4.85759000       8.66087000      -0.21008402       0.42504277      -0.00140082
H        9.37140000       4.83217000      10.22730000      -0.15727703       0.25080882      -0.55430682
O        2.59056000       3.44223000       4.93245000      -0.62949496      -1.13763679       2.40713171
H        2.59526000       3.51271000       5.95366000       0.13491625       0.18010526      -1.88470000
H        2.10852000       2.55806000       4.88425000       0.57526729       1.27226386      -0.08409098
O        5.37468000       4.26075000       7.19959000       0.69624757       1.21166660       1.61468937
H        5.48293000       3.97495000       6.31351000      -0.50954646      -1.10641131      -2.03930460
H        6.33296000       4.33972000       7.43061000      -0.43141541      -0.03913243       0.25853390
O        0.87476600       2.62611000       1.36018000       0.03641782       0.38342677      -0.77831588
H        0.47394400       2.10203000       2.04692000      -0.47842543      -0.87509389       1.61842991
H        0.09757700       2.97651000       0.90170800       0.15526108       0.42166694      -0.41172302
O        7.30547000      12.03840000       6.48965000       0.52987763       0.24454544       0.88587470
H        7.95990000      11.82930000       7.24631000      -0.55756117      -0.00524851      -1.28739530
H        7.35750000      11.35960000       5.79531000       0.22821912      -0.13596099       0.17555444
O        7.16783000       5.08670000      11.96910000       1.56825458       0.74752704      -0.56333047
H        7.63592000       5.98648000      11.98650000      -0.74180603      -1.39891266       0.37829674
H        7.91623000       4.43362000      11.79390000      -1.26477255       1.00400392       0.47452805
O        2.12694000       9.43639000       4.11005000      -0.60405027       1.11419491       0.12541364
H        2.79832000       8.79645000       4.26550000       1.52036524      -1.04172388       0.25858756
H        1.49596000       8.96589000       3.54584000      -0.79105390      -0.17376607      -0.15962823
O        7.92107000       8.66951000       8.09773000      -0.65590416      -0.77888169       0.90644780
H        8.31679000       7.83502000       8.45218000      -0.40386164       1.15821609      -0.44168689
H        6.96714000       8.67150000       8.39627000       0.67838735       0.12251593       0.01408772
O        9.66113000       1.36061000       1.17717000       2.20716483      -0.18455806       0.92153266
H        9.72329000       0.75291600       1.96446000      -0.61418825       0.52447353      -0.53218134
H        8.84774000       1.17256000       0.75544700      -1.62833165      -0.44583634      -0.38891274
O        1.78929000       4.36416000       7.89143000       0.10560493       0.46008800      -0.09891479
H        1.31109000       3.51489000       7.85833000      -0.07420797       0.79634200       0.47439619
H        1.16210000       5.08954000       8.12680000       0.29391693      -1.06907022      -0.37953633
O        2.24599000      11.98110000       2.72563000      -0.94153038      -1.86814070      -1.58723569
H        2.21594000      12.04900000       1.72387000       0.08747520       0.02246403       1.66991042
H        1.97484000      11.00090000       2.85714000       0.91996129       2.07051589       0.07335995
O        4.60758000       6.50062000      11.37150000       0.73907615      -0.87352793       0.15274428
H        5.40791000       5.89121000      11.36180000      -0.86111906       0.68049837       0.09565372
H        4.84570000       7.26031000      10.83270000       0.16202503       0.20415219      -0.44145236
O        2.69400000       1.62870000       8.85216000      -2.07185454      -2.06988629      -0.49583731
H        1.98805000       1.23020000       9.43741000       1.05786660       0.88513747      -0.18281309
H        2.32774000       1.33621000       7.95937000       0.76397991       0.76299720       0.65843678
O        6.96040000      11.87140000      11.80000000      -0.36136660       1.65736612      -0.19344893
H        6.57133000      12.38300000       0.20586700       1.56175411      -0.75121047      -1.98025816
H        7.47494000       0.08973100      11.15150000      -0.83247815      -0.90999642       1.89001544
O        5.86740000       9.08140000       3.34503000       0.30238963       0.02211921      -0.28115668
H        5.42441000       8.55828000       4.02945000      -0.55977218      -0.37385778      -0.08195427
H        5.56449000       8.66952000       2.49008000       0.06356573       0.22803911       0.59470779
O        9.00828000      11.45030000       8.51339000      -0.52835818       0.74838383      -0.03766225
H        9.85870000      11.16960000       8.15160000       0.57029053      -0.55193261      -0.31547576
H        8.52646000      10.68210000       8.83467000       0.26777305      -0.76145129       0.09711864
O        4.34028000       2.27253000       0.08026400       0.09873918       1.62209753      -0.33245528
H        4.66340000       2.68771000      11.66610000       0.14544444      -0.60207145       0.06680947
H        3.93500000       3.09741000       0.45006900       0.06842630      -0.68051395       0.29228545
O        8.97576000       5.77549000       2.46038000      -0.44903328       0.47238491       0.32867068
H        8.36380000       5.01446000       2.49631000       0.08301650       0.07513903      -0.19431843
H        8.44770000       6.54939000       2.12134000       0.49698110      -0.61742816      -0.35827493
O       10.80810000       9.80182000       4.63248000      -1.43883994      -0.01116432       0.72030403
H        9.96906000       9.42100000       5.02034000       0.73182277      -0.34866850      -0.31766599
H       10.35460000      10.58310000       4.27799000       0.32132250       0.45935041      -0.70345524
O        0.64092800       5.20105000       4.37482000       0.74702367       0.67362932      -0.54781677
H        0.79743600       5.39142000       3.41685000      -0.25384460      -0.33672747       0.84953752
H        1.51431000       4.93772000       4.76477000      -0.54691481      -0.42085628      -0.73319306
O       11.79140000       7.46972000      10.77630000       1.32073762       2.45030550      -0.64825329
H       11.33400000       6.80374000      11.22060000      -1.11052299      -1.62935517       1.47143624
H       11.90860000       8.21531000      11.43100000      -0.07631713      -0.71511063      -0.52800079
O       11.50740000       3.44117000       8.27884000      -1.00547951       0.36300483       1.07613805
H       10.73950000       3.93546000       8.67698000       1.35818041      -0.63056415      -1.26942396
H       11.51550000       3.49287000       7.29604000      -0.70890973       0.52648894      -0.09403965
O        1.52174000      10.13710000       8.58310000      -0.59846943       0.55783292      -0.69480905
H        1.49052000      10.71470000       9.36240000       0.21940634      -0.13892273       0.32740548
H        0.66710100      10.26160000       8.08937000       0.24450197       0.35629204       0.31420936
O       12.12150000       1.35068000       3.50105000      -0.59467220       0.89482662       0.55558269
H       11.87850000       1.99874000       4.22330000       0.42365400      -0.66655085      -0.66532524
H        0.47643800       0.87521500       3.81498000       0.20168955      -0.26548121       0.15187846
O       12.04900000       4.34760000      11.96370000      -2.22045257      -0.53853185       2.46454720
H        0.21409900       4.81702000      11.41750000       1.85100798       1.03791663      -1.46818327
H       11.97440000       4.94754000       0.36592500       0.30147868      -0.40829737      -1.01994945
O        5.17320000       8.99099000       8.82391000       0.85880940      -1.84903106      -1.10638232
H        4.63387000       9.65124000       9.25459000      -0.59569081       0.43886836      -0.26699753
H        4.73177000       8.40952000       8.14282000      -0.19445022       0.94990008       1.22939704
O        4.31833000       7.26040000       4.57650000      -0.90439671      -1.82634039       0.54179058
H        4.21126000       6.38041000       4.04821000       0.68682860       1.83633153       0.96260087
H        4.16084000       7.02370000       5.55370000       0.07151008       0.21695697      -1.33240035
O        4.78225000      11.63370000       9.84137000      -0.74833091       0.14775012      -0.57194091
H        4.27589000      12.37380000       9.41148000       0.94952154      -0.44958051       0.94079094
H        5.44414000      11.88250000      10.52190000      -0.09764254       0.41293268      -0.12922877
O        1.89288000       1.43473000      11.67580000      -2.33229595      -0.76750307       0.04997399
H        1.34923000       1.65230000       0.08432000       0.91718595      -0.07995763      -1.06133380
H        2.78789000       1.62736000      11.92140000       1.30911923       0.36275291       0.45091334
O        2.38698000      11.07990000      11.23860000      -1.18661829       2.66796223       0.03427845
H        1.91217000      12.02520000      11.35240000       1.40631144      -2.10864195       0.00397754
H        3.31581000      11.35680000      11.03550000      -0.62016590      -0.49155123      -0.02401769
O        1.34172000       1.30307000       6.32089000       1.95334051      -0.13242458      -0.53093932
H        1.69475000       0.38448800       6.21531000      -0.35431239       0.16005903       0.15341516
H        0.51113000       1.23475000       6.76396000      -1.73164873      -0.39037082       0.31159882
O        4.69086000       0.35636700       5.96134000      -0.92675344      -0.41382024      -0.11528862
H        5.46897000       0.22681000       6.51520000       0.10364536      -0.45912238       0.28785725
H        3.94412000      12.14030000       6.20373000       0.95775107       0.53437371      -0.41790081
O        0.07418300       8.47960000       2.72476000       0.07188030      -0.57392720       0.06168336
H       11.79640000       8.89424000       3.26596000      -0.05204402       0.12844456      -0.03564540
H        0.11207700       8.90790000       1.84914000      -0.13804021       0.36760051      -0.17490835
O        1.54925000       7.61418000       8.75204000      -0.08765814      -1.59727720       0.35440589
H        1.46967000       8.57780000       8.67574000       0.28495540       0.51683967       0.42288516
H        1.34998000       7.40120000       9.68752000       0.00174918       0.06300738      -0.67097787
O        2.69701000       4.58823000       1.40643000      -1.38771426      -0.04141292      -1.00301574
H        2.05585000       3.82029000       1.52419000       0.36505450       0.57844262      -0.00643953
H        2.25174000       5.13459000       0.69012500       0.88882405      -0.88389645       0.85576852
O       10.81080000       7.14603000       8.24378000      -1.67897891      -0.51612509      -0.13608115
H       11.31240000       6.94085000       7.41543000       0.21564422      -0.26602910       0.12353524
H       11.42660000       7.36249000       8.94407000       0.72683936       0.28546666       0.67924586
O        5.36665000       7.60548000       1.36356000       0.04253389       0.42169615      -0.82709666
H        5.45012000       6.79330000       1.88112000      -0.38671409      -0.80958241       0.36209055
H        4.80498000       7.35280000       0.60485800       0.21824657      -0.05145556       0.00640309
O        2.47962000      11.14800000       6.26328000       0.73775600       0.65255533       1.98468757
H        2.51158000      10.58630000       7.10078000      -0.54428376       0.73454276      -1.30991916
H        2.19686000      10.64310000       5.50440000      -0.12865516      -1.07536589      -0.82989301
O        9.21013000      10.07420000      12.19420000      -1.31810553       1.60275442       0.44176098
H        9.94979000      10.62530000       0.14388400      -1.03391766      -0.39589069      -0.66425255
H        8.38522000      10.71400000      12.15390000       1.91664739      -1.30399818       0.12231540
O        9.48457000       3.57730000      11.38360000      -0.53411948      -0.80390118      -1.00022073
H        9.49503000       2.60037000      11.17820000      -0.31829951       0.87489887       0.00743674
H       10.37780000       3.77202000      11.69260000       0.95027666       0.25805453       0.41306944
O        0.23586500       9.57075000       0.21047600      -0.55754978       0.40460685      -0.48242486
H        1.03042000       9.87970000      12.17300000       0.69945560      -0.10399543       0.00980650
H       12.08130000      10.35690000       0.05972500      -0.06797665      -0.07547592       0.29913729
O        8.09208000       9.10727000       5.47690000       0.14178681       0.22711815       0.72615278
H        7.29055000       8.88288000       4.99832000      -0.13678346       0.03148042      -0.66688420
H        7.83540000       9.08750000       6.43320000       0.49115309      -0.34982664      -0.39736642
O        2.05213000       5.35985000      10.97470000       0.46003522       2.70556832       1.73720565
H        2.40340000       4.72767000      10.39870000       0.74496477      -1.94160371      -1.66565716
H        2.86787000       5.93325000      11.14050000      -1.01543877      -0.73232419      -0.26876468
O        8.06825000       4.21873000       7.33497000       0.06560701       1.94607317       0.35975067
H        8.31271000       3.34284000       7.05121000       0.15765673      -1.31987038      -0.69934633
H        8.15191000       4.79403000       6.51403000       0.40549293      -0.24399079       0.41479972
O        4.66496000       3.15143000       9.51838000       2.46293729       1.65607775       1.21291413
H        3.95782000       2.57334000       9.28986000      -1.63160202      -0.59787525      -0.97607716
H        4.76255000       3.88912000       8.86500000      -0.50905651      -1.31870811       0.31468824
O        6.79128000       1.42826000       8.59931000      -0.71468817       1.82692419       0.36029061
H        6.06132000       2.03056000       9.01483000       0.79756358      -1.30734891      -0.81987576
H        6.52718000       0.50649000       8.55643000      -0.61091557      -0.02373907       0.18478639
O        0.02499300       6.88883000       6.26255000      -0.04447695      -0.54013221      -1.26925483
H        0.39744400       6.47712000       5.41994000      -0.89942037       0.21389403       0.79113532
H        0.72657900       7.42868000       6.59610000       0.79860643       0.51577883       0.60316121
O        9.17834000      12.15120000       3.36763000       1.27687578      -0.18102843      -0.12806787
H        9.56203000       0.22855700       4.09741000      -0.20017806       0.27576059       0.11689011
H        8.23479000      12.09560000       3.52508000      -0.89794401      -0.28083235       0.21342410
O       11.34750000       3.47969000       5.51619000      -0.99864116       2.03555621      -1.84796167
H       11.91910000       4.24008000       5.08085000      -0.83894843      -1.51364014       0.69919060
H       10.42360000       3.73303000       5.16525000       1.83499454      -0.54270274       0.94827056
O       11.42200000      10.27850000       7.31444000       0.06549333       0.91838528      -2.67885635
H       11.35710000      10.42340000       6.26740000       0.19209783      -0.13742641       2.37247683
H       11.35730000       9.32768000       7.28893000      -0.30780312      -1.00675591       0.46548311
O        7.97525000       7.64208000       0.66864400      -1.43548621      -1.52798704       0.49374536
H        8.40597000       8.47462000       0.51988400       0.48669938       1.40289490      -0.31476589
H        7.00210000       7.78152000       0.89285800       1.05707400       0.15014112      -0.35575957
O        6.66990000       1.06410000       1.59632000      -2.34476761       0.80996102       0.10557788
H        6.33072000       0.51800100       2.34826000       0.51603494      -0.35713614      -0.07188217
H        5.80136000       1.50157000       1.30958000       1.32537587      -0.35394421       0.03785566
O        5.19548000       2.69346000       4.76940000      -0.01848930       0.17919548       0.07382465
H        4.29402000       3.10225000       4.66266000       0.48121860      -0.74382789       0.17359294
H        5.06686000       1.77424000       5.14161000      -0.44709028       0.86953161      -0.15953848
O       11.30000000      12.06310000      12.15950000      -0.02212007      -0.12403130       0.44590806
H       11.30550000      12.27070000      11.20250000      -0.15744412       0.37904184       0.62918909
H       10.72270000       0.28356000       0.26073200       0.47863604      -0.20864567      -0.89202941
O       11.80690000       6.05182000       1.57036000      -2.73150756      -1.68870011      -0.41216947
H       10.78100000       5.94680000       1.68922000       2.18420321       0.41303177       0.25957244
H       12.06210000       6.85636000       2.01912000       0.10482863       1.19271733       0.52314614
O       10.92750000       0.95824100       6.93093000      -0.45453801       0.58839400       0.98201327
H       10.29850000       1.27679000       6.25227000       0.12881975       0.06633759       0.37657458
H       10.80190000       1.59297000       7.69657000       0.34040643      -0.69515489      -1.57085015
O        8.71925000       0.94259400      10.25550000       0.71692979       0.40730194       0.18026479
H        8.15630000       1.37785000       9.58862000      -0.85048626       0.43855095      -0.04039489
H        9.02671000       0.22576800       9.65667000       0.25393979      -0.55986160       0.33038127
O        8.83212000       5.90457000       5.24834000      -0.24972839      -0.75587371      -0.29779201
H        8.74262000       5.98174000       4.26007000       0.28007236      -0.13950722       0.45920714
H        8.91577000       6.80172000       5.56429000      -0.03199534       0.68262897       0.08389205
O        4.82787000       5.34694000       2.69582000      -1.14092104      -1.43272360      -0.51390492
H        3.97281000       4.92452000       2.24884000       1.65266508       0.96344396       0.65327362
H        5.48037000       4.62071000       2.79237000      -0.29333104       0.40746185      -0.08263571
O       11.89750000       1.10163000       9.69024000      -1.27393812      -1.96143870      -1.07754133
H       12.13580000       1.82635000      10.22790000       0.43355483       1.52468693       0.96362650
H       10.97250000       1.26792000       9.39223000       1.09367230      -0.01507995       0.62803727
O        6.31265000      11.48820000       3.69668000       0.24469169       2.30834170       0.67577442
H        5.72655000      11.91960000       4.36659000       0.12778350      -0.59368878      -0.62691104
H        5.93154000      10.61780000       3.43576000      -0.07792055      -0.62632077       0.22094229
O        7.24663000       3.45973000       3.20909000       2.24511712      -0.27016836      -2.63330107
H        7.15493000       2.67108000       2.59258000      -0.11941687       0.85175401       0.92835309
H        6.66718000       3.35774000       3.92896000      -2.03133203      -0.77941788       1.61283251
O        3.95061000       6.64051000       7.19434000       0.27272903      -1.80491925       0.83897670
H        3.13490000       6.45264000       7.70120000      -0.02050304       0.74335603      -0.22229067
H        4.39640000       5.72477000       7.28638000      -0.07691722       1.39556753      -0.49020668
O        8.47022000       1.96875000       5.61145000      -1.76466167      -0.34762196      -1.70052068
H        7.80397000       1.20978000       5.93006000       1.49843813       1.45121798      -0.98915438
H        8.17345000       2.33584000       4.66332000       0.57722298      -1.13988056       2.73231866
193
Lattice="12.42 0.0 0.0 0.0 12.42 0.0 0.0 0.0 12.42" Properties=species:S:1:pos:R:3:forces:R:3 i=2 time=0.0 energy=-29990.994017676065 pbc="T T T"
O        7.07622000       1.69984000       6.22894000       0.64395124      -0.85672007       0.57375802
H        7.18380000       2.54591000       6.77983000       0.18048824       0.01243501      -0.25422061
H        6.09708000       1.56236000       6.08425000      -0.49358672       0.37256472      -0.13813856
H        7.47236000       0.82765900       6.79126000       0.36483283       0.54899836       0.27684811
O        7.37264000       9.84757000       7.23639000      -0.53317299      -0.72764419      -2.05990300
H        7.53190000       9.69569000       8.20005000       0.18469904      -0.45563866      -0.21801778
H        7.45982000       9.03749000       6.60681000       0.14147204       1.11063492       1.90275688
O        4.37171000       7.67200000       4.31278000       0.62526674       1.27095078       1.06681351
H        3.70694000       7.92497000       3.66333000      -0.20672377      -0.10316059      -0.58713705
H        4.70678000       8.54724000       4.68592000      -0.43398075      -0.97528039      -0.49665949
O       10.59550000      10.43210000       6.72492000      -0.76136477       0.10068874      -0.14825067
H        9.92514000      10.83830000       7.30253000       0.06756643      -0.25274551      -0.19894477
H       11.43270000      10.70080000       7.12334000       0.82366906       0.22554526       0.14156109
O       11.27960000       7.65843000       6.91029000       0.08904807      -2.05485417      -0.16544605
H       12.05630000       7.64710000       7.50743000      -0.79784535       0.66588765      -0.44513389
H       10.93620000       8.52525000       6.72723000       0.05326796       1.68748378       0.55410634
O        7.97026000       9.90533000       9.71136000      -1.51508541      -0.25397422      -0.65035270
H        8.01590000      10.79590000      10.09380000       0.74735499       0.11255608       0.25876383
H        8.67976000       9.31740000       9.95815000       1.32130197      -0.13072604       0.97312864
O        0.20108100      10.24910000       2.40436000      -0.99303744       0.67042752       0.72603889
H        0.92442500      10.23730000       1.77677000       0.56918224      -0.62152809      -0.81005946
H        0.31178800       9.52569000       3.03145000       0.04955353      -0.45122950      -0.05029853
O        9.22696000       5.67142000       2.97987000      -1.06812897       0.02126218       0.09013454
H       10.07610000       5.26412000       2.81932000       0.44704141      -0.68488082      -0.46651775
H        8.53617000       4.98899000       2.78905000       0.64591265       0.55964613       0.38469782
O        5.69594000       5.62652000      10.73140000       0.41803269      -0.42245714       0.23402250
H        5.98657000       6.56740000      10.46240000       0.17052636      -1.16643099       0.23334871
H        6.43702000       4.96327000      10.80430000      -0.70159431       1.59236506      -0.29930572
O        9.27606000       2.02762000       0.98337100       1.02686433      -0.77449137       0.36944287
H        9.61886000       1.24044000       1.52402000      -0.42251556       1.00641820      -1.15401428
H       10.05440000       2.33782000       0.43059500      -0.83453749      -0.71540722       0.52579571
O        0.04846600       7.81930000       4.31331000      -0.04168928       0.16813919       0.14491268
H        0.73522600       8.10870000       4.94944000      -0.35292207      -0.15470811      -0.03435457
H       11.63550000       7.82193000       4.83758000       0.82040523       0.01375515      -0.20563213
O        6.85992000       3.81852000       3.12867000      -0.22402778       0.29222924      -2.30273576
H        6.65019000       4.30880000       3.93097000      -0.52872812       0.37645704       0.62912786
H        6.28624000       4.23272000       2.37369000       0.99843155      -0.33245333       1.84309171
O        8.09379000       2.80240000      10.20850000      -0.53442401       0.94324580      -2.25782886
H        7.27686000       2.72951000      10.73860000      -0.06297151       0.06239213      -0.01025130
H        7.85265000       3.23975000       9.29327000       0.26885755      -1.21673853       2.44736023
O        2.82114000       5.20542000      10.67380000      -0.23965137       0.93767312      -0.61728190
H        2.46314000       4.34934000      10.93530000       0.48343613      -0.79524882       0.22591882
H        3.77018000       5.35055000      10.83330000       0.12011753      -0.65460471       0.13004468
O        8.91983000       5.40555000      12.13880000      -0.09885040       0.09080237      -0.22153480
H        8.40126000       6.01635000       0.27269900       0.14357898      -0.38402119       0.01497352
H        8.95204000       4.53703000       0.14295700      -0.19387225       0.39742783       0.29002477
O       10.73480000       2.97768000      11.29610000      -1.45784513       0.06704231      -0.51743120
H       11.17530000       2.34400000      10.65230000      -0.87612762       0.34126807       0.64572597
H        9.71478000       2.95928000      11.11420000       2.31584753      -0.13142667      -0.38819136
O        8.78915000       0.02986600      10.00770000       0.07331758       1.59371004       0.34818403
H        9.78758000       0.13584300       9.86489000      -0.70948502       0.24046780       0.62284917
H        8.44980000       0.95592200      10.26710000       0.82830789      -1.38705558      -0.45031751
O        3.20022000       1.57170000       1.65360000      -0.78341704      -1.15932686       1.20020027
H        2.70955000       0.85625200       2.22558000       0.49391971       1.49448459      -1.09730314
H        2.78993000       2.46137000       1.79657000      -0.11159370      -0.65168882       0.12867802
O       10.19260000       8.40397000      10.61220000       0.83163775      -0.38216951       0.55377250
H       10.70430000       8.23249000      11.45130000      -0.94020656       0.26501726      -0.35818261
H       10.93580000       8.48115000       9.98773000       0.04258167       0.25340027      -0.13943855
O       12.40090000       1.81372000       1.89681000       1.05896161       0.26550837       1.92512636
H        0.64320500       1.58230000       2.62785000      -1.30159904       0.23780397      -1.17076145
H        0.24160000       1.20405000       1.21722000       0.03918774      -0.81850007      -0.69057887
O        9.93634000      11.77130000       2.05888000       0.31622535      -0.61598720       0.72445125
H        9.64186000      11.75920000       3.02013000       0.32253061       0.02834040      -0.90364980
H       10.78660000      11.26160000       2.05058000      -0.73041634       0.55425610       0.04082537
O        4.17401000       1.21137000      11.50340000       1.36804478      -0.29032606      -1.41572059
H        3.52600000       1.32095000      12.19720000      -0.61245667       0.69084372       0.46266081
H        4.16390000       1.93515000      10.83060000      -0.32136171      -0.46326479       0.92544992
O        0.84067700      12.02630000      11.43270000       0.17352134      -0.28018508      -0.06504016
H        0.84584100      11.03460000      11.57610000       0.70029118       1.39715068      -0.03842307
H        1.70356000      12.26000000      10.96430000      -1.17428268      -1.19169959       0.33906954
O       10.73460000       3.78386000       6.00749000      -0.30931158       0.03773251      -0.80337350
H       10.18750000       4.40073000       6.52724000       0.13485701       0.18365128       0.30852332
H       10.14580000       3.49443000       5.27054000       0.34656901      -0.05606239       0.11614198
O        0.72229700      11.34290000       7.76269000       0.62707652      -0.25716554      -0.39828112
H        1.01635000      10.61220000       8.32617000      -0.44547646       0.02663827       0.09427238
H        1.52186000      11.44490000       7.17846000      -0.64908717       0.35377609       0.04215163
O        1.38378000       6.70921000      12.21170000      -1.54561030       0.28094651       0.32064099
H        1.88891000       6.05273000      11.72970000       1.16396065      -0.44442931      -0.71713812
H        0.46214800       6.40394000      12.05160000       0.61087044       0.66571988       0.43914638
O        2.49651000       8.35113000       6.45750000       1.03474755      -0.60615507      -1.56636242
H        3.24922000       8.06300000       5.81543000      -1.57057932       0.19601354       1.07978314
H        2.08341000       7.53433000       6.78214000       0.31025620      -0.04571285       0.01276673
O        3.51510000       9.28766000       8.69661000       2.01575062       0.27891194       2.67385195
H        3.37227000       8.96963000       7.82945000      -0.79017968      -0.57013546      -2.10844742
H        4.40966000       8.89128000       8.94598000      -1.30622956       0.63448218       0.07952405
O        9.54106000       5.65060000       7.67054000       0.21504759       1.99854917      -1.27493230
H        9.90988000       5.49451000       8.55329000       0.37203922       0.40590308       0.31286096
H        9.96209000       6.55620000       7.31812000       0.06294973      -2.30812390       1.37784287
O       11.40760000       7.53741000       0.64719800      -1.02399889      -0.07331931       1.42953873