191
Lattice="12.42 0.0 0.0 0.0 12.42 0.0 0.0 0.0 12.42" Properties=species:S:1:pos:R:3:forces:R:3 i=1 time=0.0 energy=-29952.371707820024 pbc="T T T"
O        0.25290800       2.98307100      10.60580300       0.15231182       0.35113041       0.73789880
H        0.02091700       2.27301600      11.23630400      -0.59232824       0.10490932      -0.13073110
H        0.71650200       3.63396900      11.22088700      -0.28429365      -0.53903905      -0.71600003
O        3.36905300       3.33945400       5.84469500      -0.86613356      -1.05500493      -1.34149756
H        3.77647000       3.85048300       6.51708300       0.46794887       1.01972917       1.35288806
H        2.89085400       2.56614500       6.29864900       0.48240037       0.60010309      -0.43567037
O        4.13349100       4.79005100       0.08034900       0.12202813       0.59906382      -0.60288730
H        4.12222400       5.37771400      11.64637100       0.53930099      -0.69245234       1.25743740
H        4.37552100       5.37380800       0.83693500      -0.23671296       0.13209015      -0.69297837
O        4.96096000      11.16226200       7.31623800       2.01628718       1.63165711      -1.20415795
H        5.33361800      12.02966200       6.97325000      -0.85626066      -1.38532456       0.31693206
H        4.44939300      11.39665000       8.12169500      -0.72278303      -0.15371812       0.71588725
O        6.54307300      12.05172100      10.93729300      -0.47816250      -0.47736717       0.66647033
H        6.77539300       0.32168700      10.30941100      -0.07459152       0.45903464      -0.01109282
H        6.32579300      11.22863000      10.44737200       0.59211650       0.80002724       0.31376768
O        1.36324700       4.78369600      12.20800900       1.81780684       0.84245675       0.27510874
H        1.19436900       5.24995000       0.66159000       0.29267935      -0.70923590      -1.07382606
H        2.40077400       4.75098500      12.08930500      -2.00922328      -0.12026891       0.80196215
O        0.76849600       8.95379900       9.82418100      -0.30777774       1.77126079      -1.89847491
H        1.17671500       8.10706500       9.90036400       0.63323617      -1.43694637       0.10304669
H        0.96686900       9.15556800       8.82277300      -0.18524522      -0.10552897       1.72603780
O        7.44252500       5.09567500      10.54497000      -0.57684600      -0.67023460       1.80827336
H        7.89807200       5.40209700      11.36037100      -0.32182113       0.18593333      -0.97386163
H        6.99292800       4.24650400      10.91076700       0.73402896       1.13226623      -1.23842660
O        2.68438200       1.84506600       1.68994800       1.18134873       0.45218365      -1.42845184
H        3.45520200       2.38587400       1.94047900      -0.07901191       0.05771805       0.69251725
H        2.85411300       1.93780300       0.66516500      -0.47315657      -0.37585112       0.17922930
O        8.75534500       2.55124200       8.17172600       1.12590142       0.69317894       0.66204611
H        8.21255900       2.81673200       7.41441800      -0.46609759       0.04764836      -0.07453048
H        9.32771900       3.34522400       8.43852800      -0.23457595      -1.30638448      -0.48597770
O        1.66579200      11.34748900      11.86968300      -2.03446557      -0.43259322      -0.87939132
H        0.98873400      12.10610400      11.83423900       1.19529297      -1.17944056       0.36027825
H        1.15450000      10.57450500      11.45740200       1.20364055       1.41314184       0.68658358
O       12.02352200       0.79635100      12.25641100      -2.77737734      -1.94744951       2.01616472
H       11.70372700       1.00767000       0.79046600       1.09617491      -0.40128644      -2.33931732
H       11.28151000       0.09015300      11.99490300       1.99487448       2.19435657       0.37613355
O        0.96757300       5.77180500       2.38346000      -0.10231810      -0.21439888       1.19628720
H        1.55619200       5.23370900       2.97919600      -1.29053824       0.41204120      -0.75348338
H        0.05683200       5.86465900       2.82168300       1.51974936      -0.42546514      -0.16599616
O        6.15518100      10.99708700       3.91737800       0.16025502       0.41370608       1.22888356
H        7.12952000      10.94362600       4.08100300      -0.28503201      -0.14842062      -0.13566835
H        5.95022600      10.68662900       3.04707200      -0.06901982      -0.10477617      -1.07671652
O        5.39348800       0.93130800       5.24461900      -0.84271348       0.07245044       0.36974690
H        4.43548100       1.08410000       5.54307500       1.49839733      -0.71217425      -0.71504126
H        5.51521400       0.16146600       4.61853400      -0.64555889       0.47457634       0.52104368
O        9.71211100       6.21789000      11.93808800      -0.22677367      -3.12392464      -0.27524963
H        9.92591400       6.07573400      10.97663400      -0.38949958       0.40653980       0.75179377
H        9.55416500       5.24355200      12.27603900       0.73744745       2.54276235      -0.40572350
O        6.60804200       3.25651200       0.68697200       1.53630987      -0.05012280       0.82577787
H        6.17820200       2.49049400       1.07784400      -0.11220656      -0.57192871      -0.15413338
H        5.91359300       3.84398300       0.44307100      -1.59256752       0.76130182      -0.60568421
O        6.92987800       2.95030200       6.40867400      -0.42227995       0.11843510      -0.44598664
H        7.12173500       3.78415600       5.95806400       0.07106261      -0.06635672      -0.61427167
H        3.20494100       0.50757200       1.85078900       0.50046437      -1.98348400      -0.40171245
O        3.17536500       3.74386800       9.45388300       3.03739755       0.88155248      -1.24457420
H        9.15285800       3.95745300       2.43493800      -0.89830418       0.29366594      -1.03953227
H        4.12234900       3.95594900       8.93769000      -3.88971354      -0.97541389       2.29077235
O       11.34511600       6.33117800       4.25142000       0.27033166      -1.31015345       0.63147234
H       12.02285900       6.38389000       4.96982200      -0.65564630       0.58234309      -0.57040089
H       11.30180200       7.15990300       3.77087500       0.36679959       1.07044504       0.02922344
O       11.80197500       7.93573700      12.11319300       0.70952748       0.54105058      -1.05836879
H       11.97357900       8.04761500      11.13912600      -0.32910352      -0.01669115       1.10806592
H       11.24853500       7.14181200      12.18583600      -0.28320426      -0.09119232       0.07806343
O        7.23196900      10.19803000       9.38881800       0.46622623      -0.69478593      -1.39880206
H        8.16745400      10.29813600       9.08411100      -0.60516679      -0.07834873       0.60233954
H        6.67871100      10.54016300       8.66395900       0.15604596      -0.18782146      -0.10438106
O        0.93657900      11.68489200       5.32867700      -1.69381280       1.97965561      -0.62038647
H        1.11043600      11.04452000       4.59330700       0.19265851       0.76862106       0.03804525
H        0.38838900       0.08795300       4.97601400       1.39877988      -2.48065836       0.32378754
O       11.53016900       9.10373100       3.56791800      -0.62513484      -0.20009064       0.78712996
H       11.61786900       9.33758100       4.50365700      -0.07731599       0.15272828       0.01504518
H       12.38225000       9.36382100       3.21386600       0.94429449       0.35241957      -0.48957916
O       11.41293800       1.57486800       5.62494000       0.65226770      -0.41947903       2.21744629
H       11.09298000       1.99070600       6.47057800       0.10006974      -0.28702200      -1.60822844
H       10.93128300       1.85645400       4.85433900      -0.92910000       0.63203280      -0.26107391
O       10.08687800       9.86496400       9.47870900       1.54307817       0.59020499      -1.91652146
H       10.73883100      10.04522700      10.18277400      -0.57628903      -0.09796065      -0.06624250
H       10.60139300      10.15395100       8.63637200      -0.93439270      -0.36972277       1.27439853
O        9.49624600       1.97362700      12.11083800      -0.65106833       2.26770306       2.12119568
H        9.38506900       1.03224600      12.12992000      -0.24249006      -1.41771630      -0.01701536
H        9.19401300       2.30426600       0.60009100       0.53658140      -0.70838008      -1.82339552
O       10.34834400      10.28107400       1.20583500       0.42341835      -0.81780587       0.16069199
H       10.81252400      10.40602300       2.03795600      -0.08160564      -0.30501208       0.29497696
H       10.60119600       9.38282700       0.89000300      -0.04844845       0.57882082       0.26405853
O        9.08086900       5.30219200       5.86690900      -0.62234132      -0.22057182       0.34803178
H        9.57774400       6.03073000       5.45975100       0.46957947      -0.63520553       0.07939333
H        9.67111200       4.71258300       6.36666700       0.14918963       0.66992295      -0.46140562
O        5.84735700       5.49567100       4.29767700      -0.99555358      -0.91008370       0.34939824
H        5.32103200       4.64938100       3.95536500       0.95226969       1.82341924       1.01635464
H        5.43850100       5.89778400       5.12728100       0.05786303      -1.20437505      -1.46765465
O        2.85317000       7.81467100       3.29232800      -1.10202796      -1.19505365      -0.37389569
H        2.15280100       7.13491800       3.05432000       0.60931557       1.09320608       0.16174168
H        3.55315200       7.55906000       2.65719000       0.45162961       0.04474608       0.09734673
O       11.22790800      10.79014100       6.96040900       2.43783753       1.57407566      -0.77942677
H       12.26701000      10.74236900       6.84755200      -2.43698960      -0.15245634       0.11677628
H       11.09650700      11.72681500       6.59844100      -0.00346275      -1.69933207       0.70379788
O        8.59231500       0.10331600       2.64954100      -0.44632249       2.01938115      -1.65540880
H        7.66502000       0.31367500       2.38781500       0.51167680      -0.39912241      -0.19505793
H        8.60225200      11.78350600       3.22486000       0.16647940      -1.18920587       1.06008837
O        0.60969900       6.97422900       6.59312000       0.93106234      -1.20034051      -0.39376327
H        1.50435100       6.50539700       6.31988900      -2.12481626       0.66903392       1.79977863
H        0.15538100       6.70394400       7.45541600       1.56435026      -0.19270844      -1.31090797
O        4.75021500       9.20024800       5.58666200       0.98262475       1.69936100       1.52269111
H        4.86381800       9.99895100       6.27528500      -0.80531985      -1.93866168      -0.64829811
H        5.25969300       9.69032000       4.92182400      -0.24317232      -0.32382297      -0.82729890
O        1.17549700       6.13394100       9.59948200      -0.28077500       0.49997725      -0.84905849
H        1.46365300       5.37194000       9.06922000       0.63062610      -0.45288200       0.22594193
H        1.16955900       5.78340000      10.49429100      -0.06635926      -0.48177599       0.78963738
O        3.71581000       6.53806100       6.47240100      -0.94902923       0.83068659      -2.31401606
H        4.21935900       6.42542800       7.25663800       0.90202450      -0.24273106       1.16657808
H        4.07708500       7.30221100       5.95840600      -0.32002248      -0.23089209       0.77247993
O       10.85363000       0.71719300       9.73084200      -0.88450007      -2.52298485      -0.39022102
H       10.40169200       1.52112400       9.48859000      -0.58308784       0.34783675      -0.05557467
H       10.17039900      12.37348700       9.69780200       1.47865546       2.02751703       0.06385817
O        8.56603700      12.35443400       6.67735500      -0.50660334       1.88557643       0.99892252
H        7.61770200       0.06237600       6.43683900       0.95740354       0.12384176       0.31257104
H        8.82844000       0.81421900       7.15072400      -0.55241238      -1.80422503      -0.88977269
O       10.87133200       4.08935700       8.56057900      -0.36555690       0.32025688      -0.49837663
H       10.63955200       5.03016800       8.53646200       0.31257876       0.27085710       0.42264359
H       11.53190500       3.95767700       9.26140200       0.20468613      -0.19470023       0.39533825
O        9.73990800       7.54231800       2.15901800      -0.56107784      -0.69475471       0.22846768
H        9.50448500       7.73676200       3.06565000       0.06663265       0.80298257       0.50708339
H        9.50226500       6.60178600       2.17802700       0.03919571      -0.52332460      -0.80440073
O        3.39157700       1.93793500      11.57309700      -0.22868440       0.40006311       0.36421343
H        3.43596700       2.68551200      10.87920100      -0.19994992      -0.00283662      -0.55270876
H        3.80302800       1.15885900      11.19175800       0.07492289      -0.02209361      -0.16933775
O        3.64836700      11.39252900       9.43930100      -0.38771230       0.30194467       0.05514614
H        3.45202800      10.49638500       9.76539100      -0.43757845       0.67177596      -0.02370180
H        2.81138800      11.92272900       9.35341000       0.33656865      -0.57126500       0.49992180
O        7.73267700       7.77714500       4.66365700      -0.34332529       0.02723768      -0.33726782
H        7.29885400       7.12073900       4.06937600       0.16696406       0.36509512       0.73848365
H        6.99754500       8.27189200       5.07980900       0.07399999      -0.37316370      -0.26999005
O        8.76309400      10.79643600       4.61364800      -0.35131294      -0.43051033      -0.64000579
H        8.91687600      11.20123600       5.49000700       0.20970113      -0.14103044       0.20456110
H        8.81100600       9.83280200       4.60228500       0.27595362      -0.01935335       0.43679516
O        1.40380400       0.90861800       9.18036400      -1.12756448      -0.30715727      -0.05895401
H        0.48306100       0.69456200       8.93904700       0.18072246      -0.57535929      -0.19509071
H        1.12549200       1.55457800       9.87518200       1.19111590       0.67990125      -0.23094453
O        7.50864000       6.96634200       7.70888900       0.48435459      -0.69214824      -1.06850113
H        7.42503800       7.89937300       7.95380500       0.00653022      -0.03677197      -0.60716053
H        7.84292500       6.80125300       6.76430200      -0.53425299       0.82175701       1.80233633
O        9.83676000       2.43108200       3.15289500       0.53941717      -1.39765558      -0.28950428
H        9.65191400       1.47947700       2.84079500      -0.58864399       1.04637966       0.63813047
H       10.75603100       2.55281400       2.89239600       0.33826203       0.28961516      -0.06136141
O        1.65105900      10.16102600       3.03780900       0.48895294      -1.04829038      -0.31386709
H        2.20656400      10.73806200       2.46954300      -0.06228390       0.36251453       0.28714854
H        2.19103800       9.29148700       3.06823500      -0.54985603       0.79980942       0.41778990
O        6.11331600       0.39261800       1.05543700      -0.84670598      -1.38344436      -0.31698964
H        5.24661500      12.41585400       1.39418900       0.89900659       0.54151116      -0.43459432
H        6.23750900      12.34739100       0.14608300      -0.08449381       1.22374239       1.24645256
O        2.49742700       1.10214900       6.59063200      -1.48400810      -1.26503010      -0.64463896
H        2.09013600       1.11444300       7.46922400       0.38684574       0.54289438       1.25021528
H        1.78679600       0.52295600       6.15269300       1.55939379       0.29520694      -0.15456110
O        4.65391800       3.08441100       3.42212200      -0.51114864       0.84012055       1.80335323
H        4.00679900       3.28800000       4.19470500       0.53866002      -0.44724068      -0.87035764
H        5.29984900       2.59064300       3.96535500      -0.15787578      -0.30946496      -0.61988761
O        5.25344400       4.71846700       7.94755600      -0.64978102      -0.25854548      -1.17908073
H        5.69547800       5.31189900       8.53061800       1.05173503       0.64138011       0.91850553
H        5.90233300       4.21245500       7.44776800       0.35940637      -0.18213169       0.25876856
O        0.89647600       1.72548600       3.64415500       0.14037050       0.69517050       1.70526666
H        1.31725100       2.15316600       4.43317500      -0.84788596      -0.42177356      -0.74378870
H        1.67272800       1.46174300       3.14952700       0.20111501       0.00298929      -0.86222039
O        7.25906200       2.55457300      10.57763400       0.22895425       0.04400049      -1.87405740
H        7.92645700       2.49005700      11.27336300       0.31626954      -0.24736366       0.16244066
H        7.78118400       2.87251300       9.77339500      -0.86723392      -0.93692830       1.23944168
O        8.84623300       4.59365300       1.72775800       0.59864488       0.39871787       0.32237863
H        7.97814200       4.33162800       1.34943200       0.17954596      -0.68058042       0.71945756
H        6.46348600       2.33665100       5.79105900       0.19552157       0.32656408       0.36093168
O        7.13713700       8.16859000       0.84132200       0.09026248      -0.69382110      -0.14446429
H        7.80522000       8.08820800       1.55039400       0.21032091       0.00473589      -0.59607031
H        7.45624600       7.55194100       0.14209700      -0.04714846       0.66816816       0.60098873
O        9.45872600      11.45980400      11.72329500      -0.93049829      -0.38292452       1.87788903
H        8.56642800      11.31154100      11.41314300      -0.78299656       0.42118147      -1.13694157
H        9.29307600      11.04681900       0.23015900       1.47221674       0.79496538      -1.34621984
O        5.02465400       6.74196500       1.97730300       0.94840447       0.24292063       0.01212724
H        5.50420300       6.32839200       2.74912300      -0.55072125       0.41437303      -0.51335880
H        5.70705300       7.29513400       1.48866500      -0.48333655      -0.48859393       0.42915546
O       10.05327700       6.99845800       8.94442000      -1.19709102      -2.92156855      -0.48989461
H        9.08141500       6.87035000       8.66468300       1.47608123       0.77263437       0.34947366
H       10.29169600       7.90437600       9.03101400      -0.25881194       1.68029004       0.20927762
O        4.00894700       6.58776600      10.51410100       0.27209907       1.11623783       1.14898072
H        3.58351100       7.23040900      11.14737000       0.20203861      -0.71680935      -1.00062354
H        3.32070200       6.16638300       9.98827300      -0.55218627      -0.38424956      -0.14677774
O        1.52285100       9.30131500       7.19351400       0.19350650      -2.05439340      -0.52134587
H        1.25491100       8.29540800       6.91998900       0.26323954       2.36383364       0.52351882
H        2.49045800       9.30480900       7.03207200      -0.67137973       0.27685237       0.08286639
O        2.42270600       8.36697100       0.08962200      -1.47871973       1.12035913       1.26831801
H        2.33617600       9.00211500       0.86325700       0.62691519      -0.96257635      -1.23886511
H        1.44920000       8.29829700      12.33048900       0.72894555      -0.43718394      -0.09460687
O        3.56590700      11.86887900       1.78218200      -0.62687003       1.46576124      -0.18310845
H        3.28041200      11.63303900       0.87443500      -0.06115872       0.12807977       0.27807703
191
Lattice="12.42 0.0 0.0 0.0 12.42 0.0 0.0 0.0 12.42" Properties=species:S:1:pos:R:3:forces:R:3 i=2 time=0.0 energy=-29952.861002439808 pbc="T T T"
O        8.75116600       5.85522400       7.19134000      -1.73231476      -0.06357662      -0.58186692
H        9.59694200       6.03664600       7.55817900       1.74989654       0.12474410       0.60120354
H        8.14020200       6.34155400       7.75651700      -0.11304724       0.04565033       0.09576248
O       11.92524400       5.97502900      10.51636500       0.07757424       1.67674669      -1.05529423
H       11.96119900       7.00905200      10.43923000       0.20063212      -2.52159758      -0.12798011
H       11.90162400       5.63814000       9.53481300      -0.09442225       0.89902226       1.48875453
O        3.89737000       4.26419700       2.38698800       0.25816169      -0.78152375      -1.30778663
H        4.72199300       4.04518700       2.95676200      -0.86708876      -0.01970155      -0.83351299
H        4.18406800       4.06979100       1.41496200      -0.55962790       0.16659358       1.89350913
O        3.19279800      10.44913300       0.17465700       0.20863316      -0.31227392       0.94086007
H        3.47891400      10.20553700       1.08718400      -0.33925317       0.86023575       0.07153558
H        3.35837100       9.58351000      12.14297700      -0.21937716       0.17505150      -1.40943695
O        0.69535200       8.63685100      10.36096700       0.54377607      -0.49428979       0.67586638
H        1.60880200       8.28294900      10.58488000       0.02469097       0.58254789      -0.12655551
H       10.59620200      12.08248700       4.21020500       1.30184250       1.27998129       0.39719475
O        8.52242900       7.95194600      10.21342800      -0.78665348       0.50523307       1.18499206
H        7.81320300       8.30701500      10.82585400       0.53460683      -0.31012517      -0.74210933
H        8.64204700       7.06822800      10.60185800       0.14909398      -0.15712137      -0.08460617
O        9.34280900       5.45165500      11.70213600       0.03852169       0.71152694       0.10958347
H        9.30965500       4.59403000      11.25961500       0.30961698       0.11840094       0.00060026
H       10.22570700       5.84844700      11.52208400      -0.43823600      -0.74851293      -0.29558116
O       11.53677700       5.87196100       7.94613500      -0.07439690       1.91772681       0.91436954
H       11.88251500       6.80454800       7.80368900      -0.30114992      -0.96356715       0.24984399
H       11.70947800       5.44342400       7.11581800       0.09521105      -0.93353493      -1.22220522
O        5.64284100       7.60382400       6.20086100       0.23471874      -0.28416047       1.38531741
H        5.69044200       7.62241400       7.21758200      -0.31507692       0.17056967      -1.28088507
H        5.43805500       6.67802900       5.98539100      -0.23487242      -0.09187236       0.24983500
O        1.27637100       3.75107100       4.16088500       0.28644509       2.98966378      -0.14981737
H        1.84535800       4.63869500       4.08663000      -1.22105552      -3.30267365       0.54850070
H        1.75566500       3.00091300       4.51348300       1.27100606       0.26714369       0.51613436
O        4.09402900       0.01397800       7.07403600       0.47808407      -0.90041439      -0.12547097
H        3.81251500      11.56589900       6.70480100      -0.29290153       0.29467360       0.21354690
H        5.00809200      12.17857700       7.31172700      -0.19398146       0.52410408      -0.00276411
O        7.49708300       3.36326300       7.34502400       0.16385425       0.80548265      -0.31280807
H        7.12503000       3.31075800       8.27563100       0.47114535       0.59855743      -0.87091444
H        7.90835000       4.27601500       7.18458200      -0.53897587      -1.49770884       0.66453390
O        9.87164400       0.99899700       1.03844600       0.14774450      -1.42748408       0.98556164
H       10.27098500       0.07730800       1.07210700      -0.39608702       1.84087006      -0.69624946
H       10.19627300       1.53267300       0.30985800       0.54495801      -0.53552208      -0.41997107
O        4.71076500       4.49862100       5.79462700      -1.75173409       1.37691182      -0.71207951
H        5.44602000       4.02269600       6.10067500       2.00522556      -1.09500248       0.98418322
H        4.14753700       3.78559400       5.45924500       0.08062466       0.01098208      -0.19297695
O        6.86438200      10.96593300       7.93930400       1.97830186       4.07815704      -0.45348402
H        7.86038200      11.04342500       7.94462500      -1.15214003      -0.56260503      -0.27503605
H        6.63450000      10.08982300       8.02738800      -0.82835233      -3.48300411       0.68220991
O        0.44564300      11.14370000       2.38343300      -0.37313468      -0.14278385      -1.87659226
H        0.36278100      11.57743900       1.48885400       0.23886606      -0.21066355       1.27946227
H        0.31966700      10.21684300       2.08881600       0.22992545       0.21806106       0.50398871
O       10.07146800       2.95668900       9.79089000      -0.82248551      -0.43606508       0.63484928
H       10.72273600       3.06590900      10.50684800       0.43098328       0.04521829      -0.54059919
H       10.37679000       3.34410500       8.96757900       0.50610566       0.23416024       0.03181916
O        1.15180900       3.42274100       1.61142800      -0.27681274      -0.13362448      -1.29860364
H        0.89414900       3.01339500       2.43695300      -0.02111246       0.28418684       0.71279727
H        2.04839600       3.75037900       1.78585800       0.45992068       0.03983717       0.15589843
O       10.42275800       3.86482000       2.00940900       0.38769362       0.08864125       0.72666319
H       10.94945400       3.03508600       1.94766100      -0.38606230       1.24714907      -0.09354083
H       10.86565300       4.69645600       1.72996700       0.42072798      -1.03604268      -0.26163503
O        7.14025200       0.99836700       1.94888300      -3.13807339      -1.62027735      -0.07041645
H        7.15974600       0.62932000       2.86743800       0.55395561       0.46640016      -0.12849571
H        6.14385900       0.78569900       1.75254100       1.99333481       1.07614770       0.22707611
O       12.16954700       2.41603300      11.76925500      -0.69802651       1.03598151       1.10971524
H        0.16356700       2.86029900       0.13178600      -0.11171727      -0.32307361      -0.58462389
H        0.46809000       1.93313000      11.39460600       0.84471267      -0.66009388      -0.53281120
O       10.10397400      10.32962200       1.69172100       0.22504929      -1.26042471      -1.57001557
H       10.72585100       9.57866300       1.86435000      -0.62332613       0.70099889      -0.03146657
H       10.12320800      10.90718500       2.44786200       0.13109236       0.46059482       1.50182940
O       12.23552200       5.68884300       0.82918800      -0.50392918       0.55960724      -1.34551688
H        0.30836600       4.94098900       1.17890900       0.62047898      -0.50396585       0.30668193
H       12.30768600       5.60370500      12.24608400      -0.24151052       0.26369540       1.09519204
O        6.98515600       3.02992200       9.87515800      -1.51224141       0.19628042       0.05501053
H        6.58459400       2.11762000       9.75618800       0.70111604       0.29405981       0.49226548
H        7.90436500       3.00427200      10.11080000       0.87681419      -0.72272681       0.17015754
O        6.49678900       8.74866800      12.36140400       1.49010445      -0.88437938       0.97411648
H        5.84876800       9.14620300      11.79764700      -0.63155740       0.89133501      -0.49641196
H        6.94412300       9.40208100       0.56807100      -1.29196638      -0.29514770      -0.97965868
O        8.18824300       3.33599000       1.01166700      -0.88549158      -0.81797622       0.17519228
H        8.95043000       3.79082700       1.47481200      -0.35332472      -1.06951577      -0.33958091
H        8.06187300       2.40220200       1.36735700       0.49503576       1.54295492      -0.35709085
O        9.12161600       1.29057300       6.47995400       1.32662678      -2.07449672      -2.46919445
H        8.73217200       1.73289600       7.19997400      -1.02801376       1.13226475       1.76239437
H        9.50007600       0.41484300       6.71418600      -0.40046669       0.65556949       0.70234116
O        9.87818500      11.48404300       4.07466500      -3.09899123      -0.34107268       0.42510177
H        3.64576700       1.36460400       5.92899400       0.30479746       0.38742673      -0.97662929
H        9.06182200      11.98159000       4.40171100       1.62200470      -0.77437616      -0.82887312
O        4.15723400       6.92568000       1.11356400      -0.44809977      -1.06917720       0.28811059
H        4.70790200       6.12157900       0.99516200      -0.23534088       0.42049469       0.18971587
H        4.72148300       7.62648100       0.81771600       1.05617679       0.82960155       0.00612575
O        7.16775000      10.53832200       1.80763800      -2.25994361      -0.04626294      -0.11230167
H        7.21830400      11.41641100       1.42135700       0.03947427       0.35085584      -0.02401976
H        8.05163900      10.33125500       1.99677200       2.58660999      -0.57293250       0.45574039
O        0.66002900      11.41565500      11.40412900      -1.09838481       1.15721253       0.15321920